# vtk DataFile Version 4.1
vtk output
ASCII
DATASET STRUCTURED_POINTS
DIMENSIONS 176 101 1
SPACING 1 1 1
ORIGIN 0 0 0
POINT_DATA 17776
SCALARS elevation double
LOOKUP_TABLE default
nan nan nan nan nan nan nan nan nan 
nan nan nan nan nan nan nan nan nan 
nan nan nan nan nan nan nan nan nan 
nan nan nan nan nan nan nan nan nan 
nan nan nan nan nan nan nan nan nan 
nan nan nan nan nan nan nan nan nan 
nan nan nan nan nan nan nan nan nan 
nan nan nan nan nan nan nan nan nan 
nan nan nan nan nan nan nan nan nan 
nan nan nan nan nan nan nan nan nan 
nan nan nan nan nan nan nan nan nan 
nan nan nan nan nan nan nan nan nan 
nan nan nan nan nan nan nan nan nan 
nan nan nan nan nan nan nan nan nan 
nan nan nan nan nan nan nan nan nan 
nan nan nan nan nan nan nan nan nan 
nan nan nan nan nan nan nan nan nan 
nan nan nan nan nan nan nan nan nan 
nan nan nan nan nan nan nan nan nan 
nan nan nan nan nan -12.1398 -10.2212 -8.42861 -6.7486 
-6.44819 -6.44677 nan nan nan nan nan nan nan 
nan nan nan nan nan nan nan nan nan 
nan nan nan nan nan nan nan nan nan 
nan nan nan nan nan nan nan nan nan 
nan nan nan nan nan nan nan nan nan 
nan nan nan nan nan nan nan nan nan 
nan nan nan nan nan nan nan nan nan 
nan nan nan nan nan nan nan nan nan 
nan nan nan nan nan nan nan nan nan 
nan nan nan nan nan nan nan nan nan 
nan nan nan nan nan nan nan nan nan 
nan nan nan nan nan nan nan nan nan 
nan nan nan nan nan nan nan nan nan 
nan nan nan nan nan nan nan nan nan 
nan nan nan nan nan nan nan nan nan 
nan nan nan nan nan nan nan nan nan 
nan nan nan nan nan nan nan nan nan 
nan nan nan nan nan nan nan nan nan 
nan nan nan nan nan nan nan nan nan 
nan -14.8103 -12.8893 -11.2057 -9.5471 -7.88849 -6.44301 -6.4195 -6.41796 
-6.41643 -6.41489 -6.41353 nan nan nan nan nan nan 
nan nan nan nan nan nan nan nan nan 
nan nan nan nan nan nan nan nan nan 
nan nan nan nan nan nan nan nan nan 
nan nan nan nan nan nan nan nan nan 
nan nan nan nan nan nan nan nan nan 
nan nan nan nan nan nan nan nan nan 
nan nan nan nan nan nan nan nan nan 
nan nan nan nan nan nan nan nan nan 
nan nan nan nan nan nan nan nan nan 
nan nan nan nan nan nan nan nan nan 
nan nan nan nan nan nan nan nan nan 
nan nan nan nan nan nan nan nan nan 
nan nan nan nan nan nan nan nan nan 
nan nan nan nan nan nan nan nan nan 
nan nan nan nan nan nan nan nan nan 
nan nan nan nan nan nan nan nan nan 
nan nan nan nan nan nan nan nan nan 
nan nan nan nan nan nan -19.7206 -16.6898 -13.9144 
-12.2379 -10.5778 -8.91764 -7.33065 -6.39504 -6.39078 -6.38925 -6.38771 -6.38617 
-6.38463 -6.3831 -6.38156 -6.38027 nan nan nan nan nan 
nan nan nan nan nan nan nan nan nan 
nan nan nan nan nan nan nan nan nan 
nan nan nan nan nan nan nan nan nan 
nan nan nan nan nan nan nan nan nan 
nan nan nan nan nan nan nan nan nan 
nan nan nan nan nan nan nan nan nan 
nan nan nan nan nan nan nan nan nan 
nan nan nan nan nan nan nan nan nan 
nan nan nan nan nan nan nan nan nan 
nan nan nan nan nan nan nan nan nan 
nan nan nan nan nan nan nan nan nan 
nan nan nan nan nan nan nan nan nan 
nan nan nan nan nan nan nan nan nan 
nan nan nan nan nan nan nan nan nan 
nan nan nan nan nan nan nan nan nan 
nan nan nan nan nan nan nan nan nan 
nan nan nan nan nan nan nan nan nan 
nan nan -25.9176 -22.7671 -19.5343 -16.3015 -13.1849 -11.4768 -9.96009 
-8.46875 -6.97093 -6.36048 -6.36206 -6.36053 -6.35899 -6.35745 -6.35592 -6.35438 
-6.35284 -6.3513 -6.34977 -6.34823 -6.34701 nan nan nan nan 
nan nan nan nan nan nan nan nan nan 
nan nan nan nan nan nan nan nan nan 
nan nan nan nan nan nan nan nan nan 
nan nan nan nan nan nan nan nan nan 
nan nan nan nan nan nan nan nan nan 
nan nan nan nan nan nan nan nan nan 
nan nan nan nan nan nan nan nan nan 
nan nan nan nan nan nan nan nan nan 
nan nan nan nan nan nan nan nan nan 
nan nan nan nan nan nan nan nan nan 
nan nan nan nan nan nan nan nan nan 
nan nan nan nan nan nan nan nan nan 
nan nan nan nan nan nan nan nan nan 
nan nan nan nan nan nan nan nan nan 
nan nan nan nan nan nan nan nan nan 
nan nan nan nan nan nan nan nan nan 
nan nan nan nan nan nan nan -32.0918 -28.7548 
-25.4101 -22.0674 -18.7285 -15.4171 -12.4237 -10.9174 -9.45173 -7.98603 -6.41051 
-6.32821 -6.33179 -6.33216 -6.33027 -6.32873 -6.3272 -6.32566 -6.32412 -6.32259 
-6.32105 -6.31951 -6.31797 -6.31644 -6.3149 -6.31376 nan nan nan 
nan nan nan nan nan nan nan nan nan 
nan nan nan nan nan nan nan nan nan 
nan nan nan nan nan nan nan nan nan 
nan nan nan nan nan nan nan nan nan 
nan nan nan nan nan nan nan nan nan 
nan nan nan nan nan nan nan nan nan 
nan nan nan nan nan nan nan nan nan 
nan nan nan nan nan nan nan nan nan 
nan nan nan nan nan nan nan nan nan 
nan nan nan nan nan nan nan nan nan 
nan nan nan nan nan nan nan nan nan 
nan nan nan nan nan nan nan nan nan 
nan nan nan nan nan nan nan nan nan 
nan nan nan nan nan nan nan nan nan 
nan nan nan nan nan nan nan nan nan 
nan nan nan nan nan nan nan nan nan 
nan nan nan -39.6552 -34.8174 -30.5272 -27.1834 -23.8444 -20.581 
-17.3579 -14.134 -11.6472 -10.1882 -8.529 -6.81179 -6.11766 -6.15358 -6.18784 
-6.22185 -6.25787 -6.29372 -6.29853 -6.29731 -6.2954 -6.29387 -6.29233 -6.29079 
-6.28926 -6.28772 -6.28618 -6.28464 -6.28311 -6.28157 -6.28047 nan nan 
nan nan nan nan nan nan nan nan nan 
nan nan nan nan nan nan nan nan nan 
nan nan nan nan nan nan nan nan nan 
nan nan nan nan nan nan nan nan nan 
nan nan nan nan nan nan nan nan nan 
nan nan nan nan nan nan nan nan nan 
nan nan nan nan nan nan nan nan nan 
nan nan nan nan nan nan nan nan nan 
nan nan nan nan nan nan nan nan nan 
nan nan nan nan nan nan nan nan nan 
nan nan nan nan nan nan nan nan nan 
nan nan nan nan nan nan nan nan nan 
nan nan nan nan nan nan nan nan nan 
nan nan nan nan nan nan nan nan nan 
nan nan nan nan nan nan nan nan nan 
nan nan nan nan nan nan nan nan -47.4966 
-42.517 -37.7802 -33.0376 -28.9548 -25.7272 -22.4868 -19.2344 -15.8959 -12.6213 
-10.6434 -8.91845 -7.20108 -5.91238 -5.94799 -5.98226 -6.01653 -6.05079 -6.08506 
-6.11932 -6.15349 -6.18676 -6.23557 -6.25944 -6.26474 -6.26228 -6.26054 -6.259 
-6.25746 -6.25593 -6.25439 -6.25285 -6.25131 -6.24978 -6.24824 -6.24718 nan 
nan nan nan nan nan nan nan nan nan 
nan nan nan nan nan nan nan nan nan 
nan nan nan nan nan nan nan nan nan 
nan nan nan nan nan nan nan nan nan 
nan nan nan nan nan nan nan nan nan 
nan nan nan nan nan nan nan nan nan 
nan nan nan nan nan nan nan nan nan 
nan nan nan nan nan nan nan nan nan 
nan nan nan nan nan nan nan nan nan 
nan nan nan nan nan nan nan nan nan 
nan nan nan nan nan nan nan nan nan 
nan nan nan nan nan nan nan nan nan 
nan nan nan nan nan nan nan nan nan 
nan nan nan nan nan nan nan nan nan 
nan nan nan nan nan nan nan nan nan 
nan nan nan nan -55.3378 -50.3233 -45.4814 -40.7439 -35.6047 
-29.9832 -26.331 -23.0009 -19.6707 -16.6525 -13.8566 -11.3649 -9.59131 -7.80992 
-6.00752 -5.78025 -5.78351 -5.81102 -5.84474 -5.87948 -5.91374 -5.94801 -5.98228 
-6.01654 -6.05081 -6.08505 -6.11825 -6.16236 -6.21501 -6.22692 -6.22979 -6.22719 
-6.22567 -6.22413 -6.2226 -6.22106 -6.21952 -6.21798 -6.21645 -6.21491 -6.21392 
nan nan nan nan nan nan nan nan nan 
nan nan nan nan nan nan nan nan nan 
nan nan nan nan nan nan nan nan nan 
nan nan nan nan nan nan nan nan nan 
nan nan nan nan nan nan nan nan nan 
nan nan nan nan nan nan nan nan nan 
nan nan nan nan nan nan nan nan nan 
nan nan nan nan nan nan nan nan nan 
nan nan nan nan nan nan nan nan nan 
nan nan nan nan nan nan nan nan nan 
nan nan nan nan nan nan nan nan nan 
nan nan nan nan nan nan nan nan nan 
nan nan nan nan nan nan nan nan nan 
nan nan nan nan nan nan nan nan nan 
nan nan nan nan nan nan nan nan nan 
-63.1789 -58.1643 -53.18 -48.4527 -42.9541 -37.3614 -31.7687 -26.7933 -23.4624 
-20.6583 -17.8623 -15.0662 -12.2413 -10.3204 -8.53129 -6.74232 -5.73342 -5.74358 
-5.74194 -5.7403 -5.7386 -5.73446 -5.74783 -5.77541 -5.81072 -5.84523 -5.87949 
-5.91376 -5.94802 -5.98229 -6.01656 -6.04986 -6.09024 -6.1406 -6.18531 -6.19514 
-6.19473 -6.19234 -6.1908 -6.18927 -6.18773 -6.18619 -6.18465 -6.18312 -6.18158 
-6.18062 -6.17906 nan nan nan nan nan nan nan 
nan nan nan nan nan nan nan nan nan 
nan nan nan nan nan nan nan nan nan 
nan nan nan nan nan nan nan nan nan 
nan nan nan nan nan nan nan nan nan 
nan nan nan nan nan nan nan nan nan 
nan nan nan nan nan nan nan nan nan 
nan nan nan nan nan nan nan nan nan 
nan nan nan nan nan nan nan nan nan 
nan nan nan nan nan nan nan nan nan 
nan nan nan nan nan nan nan nan nan 
nan nan nan nan nan nan nan nan nan 
nan nan nan nan nan nan nan nan nan 
nan nan nan nan nan nan nan nan nan 
nan nan nan nan nan -71.0201 -66.0055 -60.9908 -55.901 
-50.3051 -44.6958 -39.0708 -33.4092 -28.3009 -24.9079 -22.0778 -19.3104 -16.538 
-13.7284 -11.008 -9.20851 -7.45234 -5.79986 -5.70647 -5.70527 -5.70363 -5.702 
-5.70036 -5.69872 -5.69709 -5.69545 -5.69294 -5.68891 -5.7112 -5.74141 -5.77669 
-5.81097 -5.84524 -5.87951 -5.91377 -5.94804 -5.98151 -6.01954 -6.06653 -6.12112 
-6.1526 -6.16262 -6.15951 -6.15747 -6.15594 -6.1544 -6.15286 -6.15132 -6.14979 
-6.14825 -6.14729 nan nan nan nan nan nan nan 
nan nan nan nan nan nan nan nan nan 
nan nan nan nan nan nan nan nan nan 
nan nan nan nan nan nan nan nan nan 
nan nan nan nan nan nan nan nan nan 
nan nan nan nan nan nan nan nan nan 
nan nan nan nan nan nan nan nan nan 
nan nan nan nan nan nan nan nan nan 
nan nan nan nan nan nan nan nan nan 
nan nan nan nan nan nan nan nan nan 
nan nan nan nan nan nan nan nan nan 
nan nan nan nan nan nan nan nan nan 
nan nan nan nan nan nan nan nan nan 
nan nan nan nan nan nan nan nan nan 
nan -78.861 -73.8956 -69.4731 -63.6694 -57.3213 -51.597 -45.9404 -40.2714 
-35.7972 -31.5933 -27.715 -24.4155 -21.1078 -18.1278 -15.3271 -12.4779 -9.79076 
-7.99043 -5.99851 -5.67035 -5.7146 -5.69045 -5.67158 -5.66388 -5.66149 -5.66042 
-5.65878 -5.65714 -5.65551 -5.65387 -5.65223 -5.6506 -5.64718 -5.65 -5.67364 
-5.70743 -5.74246 -5.77672 -5.81099 -5.84526 -5.87952 -5.91317 -5.949 -5.99503 
-6.04694 -6.10183 -6.12117 -6.12757 -6.12418 -6.12261 -6.12107 -6.11953 -6.11799 
-6.11646 -6.11492 -6.11397 nan nan nan nan nan nan 
nan nan nan nan nan nan nan nan nan 
nan nan nan nan nan nan nan nan nan 
nan nan nan nan nan nan nan nan nan 
nan nan nan nan nan nan nan nan nan 
nan nan nan nan nan nan nan nan nan 
nan nan nan nan nan nan nan nan nan 
nan nan nan nan nan nan nan nan nan 
nan nan nan nan nan nan nan nan nan 
nan nan nan nan nan nan nan nan nan 
nan nan nan nan nan nan nan nan nan 
nan nan nan nan nan nan nan nan nan 
nan nan nan nan nan nan nan nan nan 
nan nan nan nan nan nan -87.5578 -83.2182 -78.6505 
-72.2191 -65.8106 -59.402 -52.9623 -47.4705 -43.2745 -39.0688 -34.8631 -30.6888 
-27.1318 -23.1909 -19.2239 -15.9084 -13.226 -10.6444 -8.26707 -6.25683 -5.5162 
-5.60732 -5.70292 -5.74741 -5.72268 -5.69886 -5.67488 -5.64998 -5.6287 -5.62063 
-5.61642 -5.61546 -5.61393 -5.61229 -5.61065 -5.60902 -5.60738 -5.6057 -5.60144 
-5.613 -5.63773 -5.67359 -5.70821 -5.74247 -5.77674 -5.81101 -5.84484 -5.87869 
-5.92413 -5.97431 -6.02728 -6.07571 -6.09089 -6.0923 -6.08927 -6.08774 -6.0862 
-6.08466 -6.08313 -6.08159 -6.08069 -6.07917 nan nan nan nan 
nan nan nan nan nan nan nan nan nan 
nan nan nan nan nan nan nan nan nan 
nan nan nan nan nan nan nan nan nan 
nan nan nan nan nan nan nan nan nan 
nan nan nan nan nan nan nan nan nan 
nan nan nan nan nan nan nan nan nan 
nan nan nan nan nan nan nan nan nan 
nan nan nan nan nan nan nan nan nan 
nan nan nan nan nan nan nan nan nan 
nan nan nan nan nan nan nan nan nan 
nan nan nan nan nan nan nan nan nan 
nan nan nan nan nan nan nan nan nan 
nan nan -96.9666 -92.627 -87.1775 -80.7689 -74.3603 -67.9673 -61.6808 
-55.3596 -50.0225 -45.8519 -41.679 -37.5069 -33.0006 -27.2028 -23.5934 -19.9705 
-16.3556 -13.737 -11.3947 -9.01648 -6.61504 -5.35358 -5.45537 -5.54752 -5.63967 
-5.73561 -5.77936 -5.75338 -5.72959 -5.70577 -5.68194 -5.65811 -5.63402 -5.61016 
-5.58899 -5.57772 -5.57118 -5.57038 -5.56907 -5.56744 -5.5658 -5.56416 -5.56253 
-5.56 -5.55585 -5.57515 -5.60392 -5.63972 -5.67396 -5.70822 -5.74249 -5.77651 
-5.80938 -5.85341 -5.90253 -5.95362 -6.00731 -6.04433 -6.06058 -6.05687 -6.05441 
-6.05287 -6.05133 -6.0498 -6.04826 -6.04736 -6.04581 nan nan nan 
nan nan nan nan nan nan nan nan nan 
nan nan nan nan nan nan nan nan nan 
nan nan nan nan nan nan nan nan nan 
nan nan nan nan nan nan nan nan nan 
nan nan nan nan nan nan nan nan nan 
nan nan nan nan nan nan nan nan nan 
nan nan nan nan nan nan nan nan nan 
nan nan nan nan nan nan nan nan nan 
nan nan nan nan nan nan nan nan nan 
nan nan nan nan nan nan nan nan nan 
nan nan nan nan nan nan nan nan nan 
nan nan nan nan nan nan nan -106.375 -102.028 
-95.7257 -89.359 -83.0809 -76.7984 -70.5134 -64.1669 -57.8209 -52.3613 -48.1947 
-43.9868 -39.5172 -34.2625 -27.6983 -22.0692 -18.7643 -16.2998 -13.8246 -11.4682 
-9.15106 -6.7871 -5.21095 -5.31061 -5.39414 -5.48772 -5.57987 -5.67202 -5.76801 
-5.81019 -5.78413 -5.76032 -5.73649 -5.71267 -5.68884 -5.66502 -5.64119 -5.61736 
-5.59317 -5.57064 -5.5494 -5.53518 -5.52722 -5.52526 -5.52422 -5.52258 -5.52095 
-5.51931 -5.51768 -5.51431 -5.51649 -5.53646 -5.57014 -5.60544 -5.63971 -5.67397 
-5.70816 -5.74126 -5.78288 -5.83069 -5.88214 -5.93329 -5.98726 -6.01437 -6.02547 
-6.02129 -6.01954 -6.018 -6.01647 -6.01493 -6.01387 nan nan nan 
nan nan nan nan nan nan nan nan nan 
nan nan nan nan nan nan nan nan nan 
nan nan nan nan nan nan nan nan nan 
nan nan nan nan nan nan nan nan nan 
nan nan nan nan nan nan nan nan nan 
nan nan nan nan nan nan nan nan nan 
nan nan nan nan nan nan nan nan nan 
nan nan nan nan nan nan nan nan nan 
nan nan nan nan nan nan nan nan nan 
nan nan nan nan nan nan nan nan nan 
nan nan nan nan nan nan nan nan nan 
nan nan nan -108.043 -109.953 -104.477 -98.1985 -91.916 -85.6335 
-79.322 -72.9756 -66.6292 -60.2834 -54.7012 -50.3792 -45.9133 -41.4501 -35.4982 
-28.9433 -22.8609 -19.2131 -16.5869 -14.024 -11.5184 -9.10568 -6.64704 -5.06349 
-5.18081 -5.28253 -5.3589 -5.42453 -5.52007 -5.61222 -5.70436 -5.8007 -5.84163 
-5.81487 -5.79105 -5.76722 -5.7434 -5.71957 -5.69574 -5.67192 -5.64809 -5.62427 
-5.60044 -5.57657 -5.55233 -5.53071 -5.51025 -5.49287 -5.48436 -5.48009 -5.47934 
-5.47773 -5.4761 -5.47446 -5.47269 -5.46869 -5.4783 -5.5002 -5.53648 -5.57119 
-5.60545 -5.63974 -5.67297 -5.71255 -5.75883 -5.81056 -5.86113 -5.91325 -5.96412 
-5.98559 -5.98996 -5.9862 -5.98467 -5.98314 -5.9816 -5.98065 -5.97917 nan 
nan nan nan nan nan nan nan nan nan 
nan nan nan nan nan nan nan nan nan 
nan nan nan nan nan nan nan nan nan 
nan nan nan nan nan nan nan nan nan 
nan nan nan nan nan nan nan nan nan 
nan nan nan nan nan nan nan nan nan 
nan nan nan nan nan nan nan nan nan 
nan nan nan nan nan nan nan nan nan 
nan nan nan nan nan nan nan nan nan 
nan nan nan nan nan nan nan nan nan 
nan nan nan nan nan nan nan nan -104.908 
-103.37 -103.471 -104.61 -100.857 -94.4691 -88.1307 -81.8038 -75.3556 -68.7323 
-61.9729 -57.4375 -52.2838 -47.8436 -43.2599 -36.7625 -30.9799 -25.1728 -20.5034 
-17.5958 -14.8918 -11.6072 -8.97952 -6.50617 -4.93275 -5.03929 -5.14002 -5.24076 
-5.34322 -5.41568 -5.45768 -5.55245 -5.64456 -5.73671 -5.83352 -5.87416 -5.8456 
-5.82178 -5.79795 -5.77412 -5.7503 -5.72647 -5.70265 -5.67882 -5.65499 -5.63117 
-5.60734 -5.58352 -5.55969 -5.53571 -5.51144 -5.49064 -5.47119 -5.45271 -5.44187 
-5.43489 -5.43423 -5.43288 -5.43124 -5.42961 -5.42714 -5.42297 -5.43916 -5.46649 
-5.50268 -5.53694 -5.5712 -5.60466 -5.64241 -5.68689 -5.73882 -5.78963 -5.8401 
-5.89305 -5.93485 -5.95791 -5.95431 -5.95134 -5.94981 -5.94827 -5.94735 -5.94585 
nan nan nan nan nan nan nan nan nan 
nan nan nan nan nan nan nan nan nan 
nan nan nan nan nan nan nan nan nan 
nan nan nan nan nan nan nan nan nan 
nan nan nan nan nan nan nan nan nan 
nan nan nan nan nan nan nan nan nan 
nan nan nan nan nan nan nan nan nan 
nan nan nan nan nan nan nan nan nan 
nan nan nan nan nan nan nan nan nan 
nan nan nan nan nan nan nan nan nan 
nan nan nan nan -105.652 -103.734 -101.804 -101.226 -100.839 
-99.9081 -95.8875 -89.0336 -82.2852 -75.5368 -70.1427 -67.131 -61.8143 -56.2337 
-50.6262 -45.1035 -39.0282 -33.2986 -27.5025 -22.74 -18.1522 -14.9778 -11.7022 
-8.91676 -6.41182 -4.80761 -4.8958 -4.9985 -5.09924 -5.19997 -5.3007 -5.40386 
-5.47196 -5.49809 -5.58449 -5.67691 -5.76906 -5.86553 -5.90595 -5.87633 -5.8525 
-5.82868 -5.80485 -5.78103 -5.7572 -5.73337 -5.70955 -5.68572 -5.6619 -5.63807 
-5.61424 -5.59042 -5.56659 -5.54277 -5.51894 -5.49488 -5.47132 -5.45046 -5.43214 
-5.4136 -5.39974 -5.39002 -5.38906 -5.38803 -5.38639 -5.38476 -5.38159 -5.38322 
-5.399 -5.43289 -5.46842 -5.50269 -5.53634 -5.57247 -5.61536 -5.66698 -5.7181 
-5.76865 -5.8193 -5.87272 -5.90642 -5.92346 -5.91852 -5.91648 -5.91494 -5.91368 
-5.91245 nan nan nan nan nan nan nan nan 
nan nan nan nan nan nan nan nan nan 
nan nan nan nan nan nan nan nan nan 
nan nan nan nan nan nan nan nan nan 
nan nan nan nan nan nan nan nan nan 
nan nan nan nan nan nan nan nan nan 
nan nan nan nan nan nan nan nan nan 
nan nan nan nan nan nan nan nan nan 
nan nan nan nan nan nan nan nan nan 
nan nan nan nan nan nan nan nan nan 
-106.222 -104.306 -102.391 -100.468 -99.3875 -97.5293 -95.0374 -92.7177 -89.2215 
-82.3392 -78.5151 -75.5069 -71.7427 -66.1511 -60.5552 -55.8556 -51.247 -44.6235 
-37.774 -30.8606 -23.9025 -18.3485 -14.8641 -11.7614 -8.85125 -6.3829 -4.93968 
-4.9122 -4.89085 -4.95472 -5.05845 -5.15919 -5.25992 -5.36065 -5.46468 -5.52545 
-5.53979 -5.61592 -5.70926 -5.80141 -5.89744 -5.93566 -5.90706 -5.88323 -5.85941 
-5.83558 -5.81175 -5.78793 -5.7641 -5.74028 -5.71645 -5.69262 -5.6688 -5.64497 
-5.62115 -5.59732 -5.57349 -5.54967 -5.52584 -5.50202 -5.47819 -5.45406 -5.43129 
-5.41038 -5.39288 -5.37448 -5.35796 -5.34742 -5.34386 -5.34319 -5.34154 -5.33984 
-5.33614 -5.34371 -5.36254 -5.39939 -5.43417 -5.46801 -5.50264 -5.54435 -5.59514 
-5.64645 -5.69714 -5.74763 -5.79907 -5.85113 -5.87916 -5.88762 -5.88315 -5.88161 
-5.8805 -5.87908 nan nan nan nan nan nan nan 
nan nan nan nan nan nan nan nan nan 
nan nan nan nan nan nan nan nan nan 
nan nan nan nan nan nan nan nan nan 
nan nan nan nan nan nan nan nan nan 
nan nan nan nan nan nan nan nan nan 
nan nan nan nan nan nan nan nan nan 
nan nan nan nan nan nan nan nan nan 
nan nan nan nan nan nan nan nan nan 
nan nan nan nan nan -106.787 -104.573 -102.698 -100.816 
-98.8164 -95.8636 -92.9335 -90.1906 -87.743 -86.2894 -86.8621 -83.8763 -80.8742 
-76.0686 -70.7526 -66.1874 -61.6175 -57.0555 -51.3207 -42.9971 -31.87 -24.4775 
-18.9538 -14.5803 -11.6482 -8.90134 -6.36458 -5.07517 -5.04512 -5.0171 -4.98878 
-4.96365 -5.01316 -5.1184 -5.21913 -5.31987 -5.4206 -5.52489 -5.57637 -5.58254 
-5.64709 -5.74161 -5.83375 -5.93075 -5.96637 -5.93779 -5.91396 -5.89014 -5.86631 
-5.84248 -5.81866 -5.79483 -5.771 -5.74718 -5.72335 -5.69953 -5.6757 -5.65187 
-5.62805 -5.60422 -5.5804 -5.55657 -5.53274 -5.50892 -5.48509 -5.46127 -5.43739 
-5.41324 -5.39111 -5.37089 -5.35353 -5.33533 -5.31687 -5.30542 -5.29865 -5.29814 
-5.29668 -5.29435 -5.2912 -5.30326 -5.32919 -5.36565 -5.39965 -5.43344 -5.47427 
-5.52331 -5.57479 -5.62561 -5.67618 -5.72646 -5.77867 -5.82418 -5.85352 -5.85176 
-5.84828 -5.84724 -5.84577 nan nan nan nan nan nan 
nan nan nan nan nan nan nan nan nan 
nan nan nan nan nan nan nan nan nan 
nan nan nan nan nan nan nan nan nan 
nan nan nan nan nan nan nan nan nan 
nan nan nan nan nan nan nan nan nan 
nan nan nan nan nan nan nan nan nan 
nan nan nan nan nan nan nan nan nan 
nan nan nan nan nan nan nan nan nan 
nan -107.71 -105.315 -102.947 -101.009 -98.5606 -95.6177 -92.6789 -89.9512 
-87.3533 -85.4041 -86.058 -87.2292 -88.3135 -86.0294 -81.1094 -76.5896 -71.7218 
-66.704 -61.4159 -54.2882 -43.7407 -32.583 -25.0246 -19.4949 -15.2206 -12.0543 
-9.07267 -6.36474 -5.20615 -5.17778 -5.14976 -5.12174 -5.09372 -5.06535 -5.0405 
-5.07362 -5.17841 -5.27908 -5.37982 -5.48054 -5.58318 -5.62594 -5.62706 -5.6778 
-5.77396 -5.8661 -5.96228 -5.99746 -5.96852 -5.94469 -5.92086 -5.89704 -5.87321 
-5.84939 -5.82556 -5.80173 -5.77791 -5.75408 -5.73025 -5.70643 -5.6826 -5.65878 
-5.63495 -5.61112 -5.5873 -5.56347 -5.53965 -5.51582 -5.49199 -5.46817 -5.44434 
-5.42052 -5.39657 -5.37248 -5.35083 -5.33153 -5.31414 -5.29614 -5.27755 -5.26376 
-5.25329 -5.25295 -5.25183 -5.24897 -5.25008 -5.26161 -5.29575 -5.33129 -5.36471 
-5.40431 -5.45147 -5.50313 -5.55398 -5.60466 -5.65511 -5.70541 -5.75812 -5.7973 
-5.82136 -5.81579 -5.81351 -5.81243 nan nan nan nan nan 
nan nan nan nan nan nan nan nan nan 
nan nan nan nan nan nan nan nan nan 
nan nan nan nan nan nan nan nan nan 
nan nan nan nan nan nan nan nan nan 
nan nan nan nan nan nan nan nan nan 
nan nan nan nan nan nan nan nan nan 
nan nan nan nan nan nan nan nan nan 
nan nan nan nan nan nan -108.671 -106.226 -103.843 
-101.462 -98.941 -96.3288 -93.7165 -91.1043 -88.5321 -86.9631 -85.5464 -86.0375 
-87.1945 -88.3802 -88.1313 -82.7848 -77.5173 -72.2498 -66.7265 -59.7486 -52.4294 
-42.8565 -33.1486 -25.8918 -21.7707 -17.6357 -13.883 -10.7569 -7.12311 -5.35603 
-5.30885 -5.2824 -5.2544 -5.22638 -5.19836 -5.17034 -5.14195 -5.1183 -5.14316 
-5.23816 -5.33903 -5.43976 -5.54053 -5.63877 -5.67544 -5.67749 -5.70963 -5.80634 
-5.89845 -5.99294 -6.02764 -5.99924 -5.97542 -5.95159 -5.92777 -5.90394 -5.88011 
-5.85629 -5.83246 -5.80864 -5.78481 -5.76098 -5.73716 -5.71333 -5.68951 -5.66568 
-5.64185 -5.61803 -5.5942 -5.57037 -5.54655 -5.52272 -5.4989 -5.47507 -5.45124 
-5.42742 -5.40359 -5.37977 -5.35577 -5.3322 -5.31042 -5.29218 -5.27467 -5.25686 
-5.23841 -5.22244 -5.21012 -5.20774 -5.20689 -5.20372 -5.20921 -5.22537 -5.26235 
-5.29643 -5.33453 -5.37962 -5.4315 -5.48232 -5.53311 -5.58373 -5.63395 -5.68494 
-5.73721 -5.77154 -5.78512 -5.78031 -5.77897 nan nan nan nan 
nan nan nan nan nan nan nan nan nan 
nan nan nan nan nan nan nan nan nan 
nan nan nan nan nan nan nan nan nan 
nan nan nan nan nan nan nan nan nan 
nan nan nan nan nan nan nan nan nan 
nan nan nan nan nan nan nan nan nan 
nan nan nan nan nan nan nan nan nan 
nan nan -109.634 -107.137 -104.754 -102.426 -100.079 -97.4672 -94.855 
-92.2428 -90.0994 -88.5456 -87.0524 -85.7232 -86.0146 -87.357 -88.8838 -88.396 
-83.1156 -77.8481 -71.6104 -64.6542 -57.698 -50.4602 -40.9508 -34.1424 -28.9223 
-24.6173 -20.3073 -16.0549 -11.5142 -6.83008 -5.60235 -5.48868 -5.41356 -5.3752 
-5.35964 -5.33102 -5.303 -5.27498 -5.24696 -5.21854 -5.19548 -5.21476 -5.29717 
-5.39898 -5.49971 -5.60063 -5.69515 -5.72494 -5.72911 -5.75054 -5.83853 -5.93079 
-6.02435 -6.05779 -6.02997 -6.00615 -5.98232 -5.95849 -5.93467 -5.91084 -5.88702 
-5.86319 -5.83936 -5.81554 -5.79171 -5.76789 -5.74406 -5.72023 -5.69641 -5.67258 
-5.64876 -5.62493 -5.6011 -5.57728 -5.55345 -5.52962 -5.5058 -5.48197 -5.45815 
-5.43432 -5.41049 -5.38667 -5.36284 -5.33902 -5.31498 -5.29193 -5.27019 -5.25283 
-5.23521 -5.21743 -5.19921 -5.18142 -5.16859 -5.16254 -5.16154 -5.15859 -5.16749 
-5.19208 -5.22813 -5.26494 -5.30779 -5.3598 -5.41067 -5.46152 -5.51219 -5.5626 
-5.6128 -5.66433 -5.71244 -5.74714 nan -5.74562 nan nan nan 
nan nan nan nan nan nan nan nan nan 
nan nan nan nan nan nan nan nan nan 
nan nan nan nan nan nan nan nan nan 
nan nan nan nan nan nan nan nan nan 
nan nan nan nan nan nan nan nan nan 
nan nan nan nan -4.23113 -4.24349 -4.19302 -4.1232 -4.02149 
-4.02807 -4.3987 -4.9426 -5.50755 -5.98209 nan nan -110.597 -108.077 
-105.665 -103.399 -101.162 -98.6057 -95.9935 -93.3761 -91.6814 -90.1275 -88.5715 
-87.2127 -85.883 -86.2161 -87.8664 -89.3842 -88.7616 -83.428 -76.5161 -69.5599 
-62.6037 -55.6617 -48.708 -43.475 -38.143 -32.8113 -27.9465 -23.4409 -17.3203 
-11.3178 -6.56643 -5.85217 -5.73951 -5.62629 -5.53074 -5.4872 -5.44205 -5.43737 
-5.40765 -5.37962 -5.3516 -5.32358 -5.29516 -5.27227 -5.28706 -5.356 -5.45893 
-5.55966 -5.66085 -5.75283 -5.7747 -5.78025 -5.79555 -5.87007 -5.96312 -6.05647 
-6.08827 -6.0607 -6.03687 -6.01305 -5.98922 -5.9654 -5.94157 -5.91774 -5.89392 
-5.87009 -5.84627 -5.82244 -5.79861 -5.77479 -5.75096 -5.72714 -5.70331 -5.67948 
-5.65566 -5.63183 -5.60801 -5.58418 -5.56035 -5.53653 -5.5127 -5.48887 -5.46505 
-5.44122 -5.4174 -5.39357 -5.36974 -5.34592 -5.32209 -5.29823 -5.2742 -5.25154 
-5.23082 -5.21349 -5.19576 -5.17797 -5.15996 -5.14162 -5.12738 -5.11732 -5.11605 
-5.11689 -5.12514 -5.15834 -5.19553 -5.23579 -5.28801 -5.33902 -5.38986 -5.44062 
-5.49124 -5.54144 -5.59168 -5.64355 -5.68703 -5.71841 -5.71339 nan nan 
nan nan nan nan nan nan nan nan nan 
nan nan nan nan nan nan nan nan nan 
nan nan nan nan nan nan nan nan nan 
nan nan nan nan nan nan nan nan nan 
nan nan -4.47089 -5.40088 -6.17298 -6.19893 -6.34476 -6.69433 -6.7159 
-6.17508 -5.74861 -5.67906 -5.60918 -5.53856 -6.46006 -6.72266 -7.32229 -7.8859 
-8.40685 -10.1684 nan -111.56 -109.041 -106.609 -104.371 -102.134 -99.7441 
-97.1319 -94.8152 -93.2633 -91.7094 -90.1555 -88.6922 -87.5434 -86.7395 -85.9944 
-87.4807 -89.4916 -88.2435 -81.0735 -73.8866 -66.7047 -59.5228 -54.6328 -52.0272 
-46.831 -41.6297 -36.4285 -29.9163 -23.8211 -17.996 -12.0617 -6.40977 -6.10198 
-5.98932 -5.87666 -5.76401 -5.65593 -5.6069 -5.5604 -5.50397 -5.51196 -5.4843 
-5.45624 -5.42822 -5.4002 -5.3718 -5.34904 -5.36036 -5.41478 -5.51888 -5.61961 
-5.72105 -5.81162 -5.82486 -5.83118 -5.84123 -5.9013 -5.99549 -6.0881 -6.11864 
-6.09143 -6.0676 -6.04378 -6.01995 -5.99612 -5.9723 -5.94847 -5.92465 -5.90082 
-5.87699 -5.85317 -5.82934 -5.80552 -5.78169 -5.75786 -5.73404 -5.71021 -5.68639 
-5.66256 -5.63873 -5.61491 -5.59108 -5.56726 -5.54343 -5.5196 -5.49578 -5.47195 
-5.44812 -5.4243 -5.40047 -5.37665 -5.35282 -5.32899 -5.30517 -5.28134 -5.25744 
-5.23351 -5.21104 -5.19149 -5.17409 -5.1563 -5.13851 -5.12067 -5.10242 -5.08651 
-5.07285 -5.07065 -5.0748 -5.0882 -5.12582 -5.16463 -5.21619 -5.26738 -5.31821 
-5.36904 -5.41973 -5.47009 -5.52029 -5.57092 -5.62272 -5.66288 -5.6825 nan 
nan nan nan nan nan nan nan nan nan 
nan nan nan nan nan nan nan nan nan 
nan nan nan nan nan nan nan nan nan 
nan nan -4.51044 nan -4.67015 -5.4462 -6.26024 -7.11075 -8.07869 
-8.73526 -9.06737 -9.16558 -9.49906 -9.86043 -9.10755 -8.11357 -7.54786 -7.4709 
-7.56342 -9.15342 -9.42688 -10.0404 -10.4836 -11.1315 -12.7941 nan -113.236 
-110.988 -108.807 -105.457 -103.107 -100.861 -98.2705 -96.3991 -94.8452 -93.2913 
-91.7374 -90.1851 -89.2379 -88.4334 -87.6289 -86.8228 -86.8967 -88.6461 -84.7331 
-77.5512 -70.3693 -63.1076 -60.3355 -58.11 -55.2977 -50.0736 -44.8958 -37.2396 
-29.5613 -22.462 -16.6545 -10.9202 -6.37947 -6.3269 -6.23918 -6.12648 -6.01382 
-5.90116 -5.78853 -5.72207 -5.68067 -5.63377 -5.57051 -5.57738 -5.56166 -5.53287 
-5.50485 -5.47682 -5.44845 -5.42538 -5.43654 -5.47302 -5.57884 -5.67956 -5.78115 
-5.86981 -5.87527 -5.88179 -5.88772 -5.93243 -6.02785 -6.11901 -6.14888 -6.12216 
-6.09833 -6.07451 -6.05068 -6.02685 -6.00303 -5.9792 -5.95537 -5.93155 -5.90772 
-5.8839 -5.86007 -5.83624 -5.81242 -5.78859 -5.76477 -5.74094 -5.71711 -5.69329 
-5.66946 -5.64564 -5.62181 -5.59798 -5.57416 -5.55033 -5.52651 -5.50268 -5.47885 
-5.45503 -5.4312 -5.40737 -5.38355 -5.35972 -5.3359 -5.31207 -5.28824 -5.26442 
-5.24059 -5.21667 -5.19305 -5.1704 -5.15216 -5.13463 -5.11684 -5.09905 -5.08126 
-5.06316 -5.04593 -5.03108 -5.02559 -5.03175 -5.05506 -5.09487 -5.14438 -5.19574 
-5.24656 -5.29739 -5.34815 -5.39874 -5.44893 -5.49916 -5.55009 nan -5.63981 
nan nan nan nan nan nan nan nan nan 
nan nan nan nan nan nan nan nan nan 
nan nan nan -5.7148 -6.10423 -6.24394 -6.28159 -6.44925 -6.40367 
-7.41655 -8.24233 -9.03265 -9.84004 -10.7348 -11.2996 -11.8595 -12.2659 -12.8962 
-13.0703 -11.7727 -10.9384 -10.0933 -9.31803 -9.84891 -11.45 -12.3535 -13.8456 
-14.4884 -15.0134 -15.8177 nan -115.707 -113.475 -111.406 -108.405 -105.038 
-101.828 -99.5363 -97.9816 -96.4218 -94.8532 -93.2829 -91.8634 -91.0976 -90.1822 
-89.379 -88.5738 -87.5819 -86.1065 -87.7561 -81.2158 -74.0339 -68.2472 -66.0381 
-63.8126 -61.5871 -58.5427 -52.426 -44.6281 -36.8304 -29.2295 -22.0224 -15.3275 
-9.8958 -6.61848 -6.50375 -6.41142 -6.38222 -6.26364 -6.15098 -6.03832 -5.92511 
-5.83594 -5.79596 -5.75443 -5.70417 -5.63553 -5.64129 -5.63948 -5.60949 -5.58147 
-5.55345 -5.5251 -5.50099 -5.51454 -5.53904 -5.63877 -5.73951 -5.84118 -5.92438 
-5.92573 -5.9322 -5.93738 -5.96331 -6.06018 -6.15076 -6.17918 -6.15289 -6.12906 
-6.10523 -6.08141 -6.05758 -6.03376 -6.00993 -5.9861 -5.96228 -5.93845 -5.91462 
-5.8908 -5.86697 -5.84315 -5.81932 -5.79549 -5.77167 -5.74784 -5.72402 -5.70019 
-5.67636 -5.65254 -5.62871 -5.60489 -5.58106 -5.55723 -5.53341 -5.50958 -5.48576 
-5.46193 -5.4381 -5.41428 -5.39045 -5.36663 -5.3428 -5.31897 -5.29515 -5.27132 
-5.24749 -5.22367 -5.19984 -5.17591 -5.15256 -5.13012 -5.11282 -5.09517 -5.07738 
-5.05959 -5.0418 -5.02385 -5.00585 -4.99016 -4.98239 -4.98732 -5.02419 -5.0726 
-5.12409 -5.17492 -5.22574 -5.27656 -5.32728 -5.37757 -5.42778 -5.47802 nan 
-5.57662 nan nan nan nan nan nan nan nan 
nan nan nan nan -5.29365 -6.07872 -6.86243 -7.64894 -8.427 
-8.62256 -8.82314 -8.99943 -9.15697 -9.39459 -10.3264 -11.2656 -12.1522 -12.8585 
-13.6654 -14.362 -15.0695 -16.037 -16.8041 -16.4983 -14.7911 -13.5647 -12.8161 
-12.058 -12.563 -14.0894 -15.7578 -17.176 -18.5068 -19.0729 -19.6872 nan 
-118.178 -116.021 -113.952 -111.391 -108.024 -104.657 -101.647 -99.5018 -97.9331 
-96.3629 -94.7928 -93.7705 -93.1312 -92.2234 -91.2333 -90.3426 -88.9839 -87.3122 
-85.6564 -84.9185 -77.6883 -73.9662 -71.7407 -69.5152 -67.2803 -65.2327 -59.6077 
-51.9792 -44.2283 -36.4212 -28.8952 -21.7914 -14.7216 -8.87232 -6.81032 -6.69688 
-6.58319 -6.48801 -6.46871 -6.40141 -6.28814 -6.17548 -6.06275 -5.95479 -5.91156 
-5.86963 -5.82807 -5.77315 -5.70331 -5.70236 -5.71157 -5.68613 -5.65809 -5.63007 
-5.60177 -5.57774 -5.59219 -5.61305 -5.69832 -5.79945 -5.90089 -5.9733 -5.97616 
-5.98262 -5.98849 -6.00272 -6.09252 -6.18282 -6.20949 -6.18361 -6.15979 -6.13596 
-6.11214 -6.08831 -6.06448 -6.04066 -6.01683 -5.99301 -5.96918 -5.94535 -5.92153 
-5.8977 -5.87387 -5.85005 -5.82622 -5.8024 -5.77857 -5.75474 -5.73092 -5.70709 
-5.68327 -5.65944 -5.63561 -5.61179 -5.58796 -5.56414 -5.54031 -5.51648 -5.49266 
-5.46883 -5.44501 -5.42118 -5.39735 -5.37353 -5.3497 -5.32588 -5.30205 -5.27822 